version 2
run One-0-20160417-10:02:55-13313
attr configname One
attr datetime 20160417-10:02:55
attr experiment One
attr inifile omnetpp.ini
attr iterationvars ""
attr iterationvars2 $repetition=0
attr measurement ""
attr network mIPv6Network
attr processid 13313
attr repetition 0
attr replication #0
attr resultdir results
attr runnumber 0
attr seedset 1

vector 20  mIPv6Network.Home_Agent.eth[0].queue.pauseQueue  queueLength:vector  ETV
attr interpolationmode  sample-hold
attr title  "queue length, vector"
vector 24  mIPv6Network.Home_Agent.eth[0].queue.dataQueue  queueLength:vector  ETV
attr interpolationmode  sample-hold
attr title  "queue length, vector"
vector 40  mIPv6Network.Home_Agent.eth[1].queue.pauseQueue  queueLength:vector  ETV
attr interpolationmode  sample-hold
attr title  "queue length, vector"
vector 44  mIPv6Network.Home_Agent.eth[1].queue.dataQueue  queueLength:vector  ETV
attr interpolationmode  sample-hold
attr title  "queue length, vector"
vector 64  mIPv6Network.Foreign_Agent.eth[0].queue.pauseQueue  queueLength:vector  ETV
attr interpolationmode  sample-hold
attr title  "queue length, vector"
vector 68  mIPv6Network.Foreign_Agent.eth[0].queue.dataQueue  queueLength:vector  ETV
attr interpolationmode  sample-hold
attr title  "queue length, vector"
vector 84  mIPv6Network.Foreign_Agent.eth[1].queue.pauseQueue  queueLength:vector  ETV
attr interpolationmode  sample-hold
attr title  "queue length, vector"
vector 88  mIPv6Network.Foreign_Agent.eth[1].queue.dataQueue  queueLength:vector  ETV
attr interpolationmode  sample-hold
attr title  "queue length, vector"
vector 108  mIPv6Network.Router.eth[0].queue.pauseQueue  queueLength:vector  ETV
attr interpolationmode  sample-hold
attr title  "queue length, vector"
vector 112  mIPv6Network.Router.eth[0].queue.dataQueue  queueLength:vector  ETV
attr interpolationmode  sample-hold
attr title  "queue length, vector"
vector 128  mIPv6Network.Router.eth[1].queue.pauseQueue  queueLength:vector  ETV
attr interpolationmode  sample-hold
attr title  "queue length, vector"
vector 132  mIPv6Network.Router.eth[1].queue.dataQueue  queueLength:vector  ETV
attr interpolationmode  sample-hold
attr title  "queue length, vector"
vector 148  mIPv6Network.Router.eth[2].queue.pauseQueue  queueLength:vector  ETV
attr interpolationmode  sample-hold
attr title  "queue length, vector"
vector 152  mIPv6Network.Router.eth[2].queue.dataQueue  queueLength:vector  ETV
attr interpolationmode  sample-hold
attr title  "queue length, vector"
vector 173  mIPv6Network.MN[0].wlan[0].mac.ctn[0]  state:vector  ETV
attr interpolationmode  none
attr source  stateChanged
attr title  "contention state, vector"
vector 198  mIPv6Network.CN[0].eth[0].queue.pauseQueue  queueLength:vector  ETV
attr interpolationmode  sample-hold
attr title  "queue length, vector"
vector 202  mIPv6Network.CN[0].eth[0].queue.dataQueue  queueLength:vector  ETV
attr interpolationmode  sample-hold
attr title  "queue length, vector"
vector 211  mIPv6Network.AP_Home.wlan[0].mac.ctn[0]  state:vector  ETV
attr interpolationmode  none
attr source  stateChanged
attr title  "contention state, vector"
vector 224  mIPv6Network.AP_Home.eth[0].queue.pauseQueue  queueLength:vector  ETV
attr interpolationmode  sample-hold
attr title  "queue length, vector"
vector 228  mIPv6Network.AP_Home.eth[0].queue.dataQueue  queueLength:vector  ETV
attr interpolationmode  sample-hold
attr title  "queue length, vector"
vector 237  mIPv6Network.AP_Foreign.wlan[0].mac.ctn[0]  state:vector  ETV
attr interpolationmode  none
attr source  stateChanged
attr title  "contention state, vector"
vector 250  mIPv6Network.AP_Foreign.eth[0].queue.pauseQueue  queueLength:vector  ETV
attr interpolationmode  sample-hold
attr title  "queue length, vector"
vector 254  mIPv6Network.AP_Foreign.eth[0].queue.dataQueue  queueLength:vector  ETV
attr interpolationmode  sample-hold
attr title  "queue length, vector"
vector 169  mIPv6Network.MN[0].wlan[0].radio  radioMode:vector  ETV
attr interpolationmode  sample-hold
attr source  radioModeChanged
attr title  "Radio mode, vector"
vector 172  mIPv6Network.MN[0].wlan[0].radio  radioChannel:vector  ETV
attr interpolationmode  sample-hold
attr source  radioChannelChanged
attr title  "Radio channel, vector"
vector 207  mIPv6Network.AP_Home.wlan[0].radio  radioMode:vector  ETV
attr interpolationmode  sample-hold
attr source  radioModeChanged
attr title  "Radio mode, vector"
vector 210  mIPv6Network.AP_Home.wlan[0].radio  radioChannel:vector  ETV
attr interpolationmode  sample-hold
attr source  radioChannelChanged
attr title  "Radio channel, vector"
vector 233  mIPv6Network.AP_Foreign.wlan[0].radio  radioMode:vector  ETV
attr interpolationmode  sample-hold
attr source  radioModeChanged
attr title  "Radio mode, vector"
vector 236  mIPv6Network.AP_Foreign.wlan[0].radio  radioChannel:vector  ETV
attr interpolationmode  sample-hold
attr source  radioChannelChanged
attr title  "Radio channel, vector"
vector 170  mIPv6Network.MN[0].wlan[0].radio  receptionState:vector  ETV
attr interpolationmode  sample-hold
attr source  receptionStateChanged
attr title  "Radio reception state, vector"
vector 208  mIPv6Network.AP_Home.wlan[0].radio  receptionState:vector  ETV
attr interpolationmode  sample-hold
attr source  receptionStateChanged
attr title  "Radio reception state, vector"
vector 234  mIPv6Network.AP_Foreign.wlan[0].radio  receptionState:vector  ETV
attr interpolationmode  sample-hold
attr source  receptionStateChanged
attr title  "Radio reception state, vector"
vector 205  mIPv6Network.AP_Home.wlan[0].mac  rcvdPkFromHL:vector(packetBytes)  ETV
attr interpolationmode  none
attr source  packetReceivedFromUpper
attr title  "packets received from higher layer, vector(packetBytes)"
vector 204  mIPv6Network.AP_Home.wlan[0].mac  sentDownPk:vector(packetBytes)  ETV
attr interpolationmode  none
attr source  packetSentToLower
attr title  "packets sent to lower layer, vector(packetBytes)"
vector 209  mIPv6Network.AP_Home.wlan[0].radio  transmissionState:vector  ETV
attr interpolationmode  sample-hold
attr source  transmissionStateChanged
attr title  "Radio transmission state, vector"
vector 78  mIPv6Network.Foreign_Agent.eth[1].encap  encapPk:vector(packetBytes)  ETV
attr interpolationmode  none
attr source  encapPk
attr title  "packets encapsulated, vector(packetBytes)"
vector 85  mIPv6Network.Foreign_Agent.eth[1].queue.dataQueue  rcvdPk:vector(packetBytes)  ETV
attr interpolationmode  none
attr title  "received packets, vector(packetBytes)"
vector 87  mIPv6Network.Foreign_Agent.eth[1].queue.dataQueue  queueingTime:vector  ETV
attr interpolationmode  none
attr title  "queueing time, vector"
vector 74  mIPv6Network.Foreign_Agent.eth[1].mac  rxPkFromHL:vector(packetBytes)  ETV
attr interpolationmode  none
attr source  rxPkFromHL
attr title  "packet bytes from higher layer, vector(packetBytes)"
vector 69  mIPv6Network.Foreign_Agent.eth[1].mac  txPk:vector(packetBytes)  ETV
attr interpolationmode  none
attr source  txPk
attr title  "packets transmitted, vector(packetBytes)"
vector 239  mIPv6Network.AP_Foreign.eth[0].mac  rxPkOk:vector(packetBytes)  ETV
attr interpolationmode  none
attr source  rxPkOk
attr title  "packets received OK, vector(packetBytes)"
vector 240  mIPv6Network.AP_Foreign.eth[0].mac  passedUpPk:vector(packetBytes)  ETV
attr interpolationmode  none
attr source  packetSentToUpper
attr title  "packets passed to higher layer, vector(packetBytes)"
vector 231  mIPv6Network.AP_Foreign.wlan[0].mac  rcvdPkFromHL:vector(packetBytes)  ETV
attr interpolationmode  none
attr source  packetReceivedFromUpper
attr title  "packets received from higher layer, vector(packetBytes)"
vector 230  mIPv6Network.AP_Foreign.wlan[0].mac  sentDownPk:vector(packetBytes)  ETV
attr interpolationmode  none
attr source  packetSentToLower
attr title  "packets sent to lower layer, vector(packetBytes)"
vector 235  mIPv6Network.AP_Foreign.wlan[0].radio  transmissionState:vector  ETV
attr interpolationmode  sample-hold
attr source  transmissionStateChanged
attr title  "Radio transmission state, vector"
vector 34  mIPv6Network.Home_Agent.eth[1].encap  encapPk:vector(packetBytes)  ETV
attr interpolationmode  none
attr source  encapPk
attr title  "packets encapsulated, vector(packetBytes)"
vector 41  mIPv6Network.Home_Agent.eth[1].queue.dataQueue  rcvdPk:vector(packetBytes)  ETV
attr interpolationmode  none
attr title  "received packets, vector(packetBytes)"
vector 43  mIPv6Network.Home_Agent.eth[1].queue.dataQueue  queueingTime:vector  ETV
attr interpolationmode  none
attr title  "queueing time, vector"
vector 30  mIPv6Network.Home_Agent.eth[1].mac  rxPkFromHL:vector(packetBytes)  ETV
attr interpolationmode  none
attr source  rxPkFromHL
attr title  "packet bytes from higher layer, vector(packetBytes)"
vector 25  mIPv6Network.Home_Agent.eth[1].mac  txPk:vector(packetBytes)  ETV
attr interpolationmode  none
attr source  txPk
attr title  "packets transmitted, vector(packetBytes)"
vector 213  mIPv6Network.AP_Home.eth[0].mac  rxPkOk:vector(packetBytes)  ETV
attr interpolationmode  none
attr source  rxPkOk
attr title  "packets received OK, vector(packetBytes)"
vector 214  mIPv6Network.AP_Home.eth[0].mac  passedUpPk:vector(packetBytes)  ETV
attr interpolationmode  none
attr source  packetSentToUpper
attr title  "packets passed to higher layer, vector(packetBytes)"
vector 89  mIPv6Network.Router.networkLayer.neighbourDiscovery  startDAD:vector  ETV
attr title  "DAD started, vector"
vector 102  mIPv6Network.Router.eth[0].encap  encapPk:vector(packetBytes)  ETV
attr interpolationmode  none
attr source  encapPk
attr title  "packets encapsulated, vector(packetBytes)"
vector 109  mIPv6Network.Router.eth[0].queue.dataQueue  rcvdPk:vector(packetBytes)  ETV
attr interpolationmode  none
attr title  "received packets, vector(packetBytes)"
vector 111  mIPv6Network.Router.eth[0].queue.dataQueue  queueingTime:vector  ETV
attr interpolationmode  none
attr title  "queueing time, vector"
vector 98  mIPv6Network.Router.eth[0].mac  rxPkFromHL:vector(packetBytes)  ETV
attr interpolationmode  none
attr source  rxPkFromHL
attr title  "packet bytes from higher layer, vector(packetBytes)"
vector 93  mIPv6Network.Router.eth[0].mac  txPk:vector(packetBytes)  ETV
attr interpolationmode  none
attr source  txPk
attr title  "packets transmitted, vector(packetBytes)"
vector 50  mIPv6Network.Foreign_Agent.eth[0].mac  rxPkOk:vector(packetBytes)  ETV
attr interpolationmode  none
attr source  rxPkOk
attr title  "packets received OK, vector(packetBytes)"
vector 51  mIPv6Network.Foreign_Agent.eth[0].mac  passedUpPk:vector(packetBytes)  ETV
attr interpolationmode  none
attr source  packetSentToUpper
attr title  "packets passed to higher layer, vector(packetBytes)"
vector 59  mIPv6Network.Foreign_Agent.eth[0].encap  decapPk:vector(packetBytes)  ETV
attr interpolationmode  none
attr source  decapPk
attr title  "packets decapsulated, vector(packetBytes)"
vector 122  mIPv6Network.Router.eth[1].encap  encapPk:vector(packetBytes)  ETV
attr interpolationmode  none
attr source  encapPk
attr title  "packets encapsulated, vector(packetBytes)"
vector 129  mIPv6Network.Router.eth[1].queue.dataQueue  rcvdPk:vector(packetBytes)  ETV
attr interpolationmode  none
attr title  "received packets, vector(packetBytes)"
vector 131  mIPv6Network.Router.eth[1].queue.dataQueue  queueingTime:vector  ETV
attr interpolationmode  none
attr title  "queueing time, vector"
vector 118  mIPv6Network.Router.eth[1].mac  rxPkFromHL:vector(packetBytes)  ETV
attr interpolationmode  none
attr source  rxPkFromHL
attr title  "packet bytes from higher layer, vector(packetBytes)"
vector 113  mIPv6Network.Router.eth[1].mac  txPk:vector(packetBytes)  ETV
attr interpolationmode  none
attr source  txPk
attr title  "packets transmitted, vector(packetBytes)"
vector 6  mIPv6Network.Home_Agent.eth[0].mac  rxPkOk:vector(packetBytes)  ETV
attr interpolationmode  none
attr source  rxPkOk
attr title  "packets received OK, vector(packetBytes)"
vector 7  mIPv6Network.Home_Agent.eth[0].mac  passedUpPk:vector(packetBytes)  ETV
attr interpolationmode  none
attr source  packetSentToUpper
attr title  "packets passed to higher layer, vector(packetBytes)"
vector 15  mIPv6Network.Home_Agent.eth[0].encap  decapPk:vector(packetBytes)  ETV
attr interpolationmode  none
attr source  decapPk
attr title  "packets decapsulated, vector(packetBytes)"
vector 142  mIPv6Network.Router.eth[2].encap  encapPk:vector(packetBytes)  ETV
attr interpolationmode  none
attr source  encapPk
attr title  "packets encapsulated, vector(packetBytes)"
vector 149  mIPv6Network.Router.eth[2].queue.dataQueue  rcvdPk:vector(packetBytes)  ETV
attr interpolationmode  none
attr title  "received packets, vector(packetBytes)"
vector 151  mIPv6Network.Router.eth[2].queue.dataQueue  queueingTime:vector  ETV
attr interpolationmode  none
attr title  "queueing time, vector"
vector 138  mIPv6Network.Router.eth[2].mac  rxPkFromHL:vector(packetBytes)  ETV
attr interpolationmode  none
attr source  rxPkFromHL
attr title  "packet bytes from higher layer, vector(packetBytes)"
vector 0  mIPv6Network.hub  pk:vector(packetBytes)  ETV
attr interpolationmode  none
attr source  pk
attr title  "packets, vector(packetBytes)"
vector 133  mIPv6Network.Router.eth[2].mac  txPk:vector(packetBytes)  ETV
attr interpolationmode  none
attr source  txPk
attr title  "packets transmitted, vector(packetBytes)"
vector 184  mIPv6Network.CN[0].eth[0].mac  rxPkOk:vector(packetBytes)  ETV
attr interpolationmode  none
attr source  rxPkOk
attr title  "packets received OK, vector(packetBytes)"
vector 185  mIPv6Network.CN[0].eth[0].mac  passedUpPk:vector(packetBytes)  ETV
attr interpolationmode  none
attr source  packetSentToUpper
attr title  "packets passed to higher layer, vector(packetBytes)"
vector 193  mIPv6Network.CN[0].eth[0].encap  decapPk:vector(packetBytes)  ETV
attr interpolationmode  none
attr source  decapPk
attr title  "packets decapsulated, vector(packetBytes)"
vector 45  mIPv6Network.Foreign_Agent.networkLayer.neighbourDiscovery  startDAD:vector  ETV
attr title  "DAD started, vector"
vector 58  mIPv6Network.Foreign_Agent.eth[0].encap  encapPk:vector(packetBytes)  ETV
attr interpolationmode  none
attr source  encapPk
attr title  "packets encapsulated, vector(packetBytes)"
vector 65  mIPv6Network.Foreign_Agent.eth[0].queue.dataQueue  rcvdPk:vector(packetBytes)  ETV
attr interpolationmode  none
attr title  "received packets, vector(packetBytes)"
vector 67  mIPv6Network.Foreign_Agent.eth[0].queue.dataQueue  queueingTime:vector  ETV
attr interpolationmode  none
attr title  "queueing time, vector"
vector 54  mIPv6Network.Foreign_Agent.eth[0].mac  rxPkFromHL:vector(packetBytes)  ETV
attr interpolationmode  none
attr source  rxPkFromHL
attr title  "packet bytes from higher layer, vector(packetBytes)"
vector 49  mIPv6Network.Foreign_Agent.eth[0].mac  txPk:vector(packetBytes)  ETV
attr interpolationmode  none
attr source  txPk
attr title  "packets transmitted, vector(packetBytes)"
vector 94  mIPv6Network.Router.eth[0].mac  rxPkOk:vector(packetBytes)  ETV
attr interpolationmode  none
attr source  rxPkOk
attr title  "packets received OK, vector(packetBytes)"
vector 95  mIPv6Network.Router.eth[0].mac  passedUpPk:vector(packetBytes)  ETV
attr interpolationmode  none
attr source  packetSentToUpper
attr title  "packets passed to higher layer, vector(packetBytes)"
vector 103  mIPv6Network.Router.eth[0].encap  decapPk:vector(packetBytes)  ETV
attr interpolationmode  none
attr source  decapPk
attr title  "packets decapsulated, vector(packetBytes)"
vector 162  mIPv6Network.MN[0].wlan[0].agent  sentRequest:vector  ETV
attr title  "sent requests, vector"
vector 168  mIPv6Network.MN[0].wlan[0].mac  rcvdPkFromLL:vector(packetBytes)  ETV
attr interpolationmode  none
attr source  packetReceivedFromLower
attr title  "packets received from lower layer, vector(packetBytes)"
vector 165  mIPv6Network.MN[0].wlan[0].mac  passedUpPk:vector(packetBytes)  ETV
attr interpolationmode  none
attr source  packetSentToUpper
attr title  "packets passed to higher layer, vector(packetBytes)"
vector 1  mIPv6Network.Home_Agent.networkLayer.neighbourDiscovery  startDAD:vector  ETV
attr title  "DAD started, vector"
vector 14  mIPv6Network.Home_Agent.eth[0].encap  encapPk:vector(packetBytes)  ETV
attr interpolationmode  none
attr source  encapPk
attr title  "packets encapsulated, vector(packetBytes)"
vector 21  mIPv6Network.Home_Agent.eth[0].queue.dataQueue  rcvdPk:vector(packetBytes)  ETV
attr interpolationmode  none
attr title  "received packets, vector(packetBytes)"
vector 23  mIPv6Network.Home_Agent.eth[0].queue.dataQueue  queueingTime:vector  ETV
attr interpolationmode  none
attr title  "queueing time, vector"
vector 10  mIPv6Network.Home_Agent.eth[0].mac  rxPkFromHL:vector(packetBytes)  ETV
attr interpolationmode  none
attr source  rxPkFromHL
attr title  "packet bytes from higher layer, vector(packetBytes)"
vector 5  mIPv6Network.Home_Agent.eth[0].mac  txPk:vector(packetBytes)  ETV
attr interpolationmode  none
attr source  txPk
attr title  "packets transmitted, vector(packetBytes)"
vector 114  mIPv6Network.Router.eth[1].mac  rxPkOk:vector(packetBytes)  ETV
attr interpolationmode  none
attr source  rxPkOk
attr title  "packets received OK, vector(packetBytes)"
vector 115  mIPv6Network.Router.eth[1].mac  passedUpPk:vector(packetBytes)  ETV
attr interpolationmode  none
attr source  packetSentToUpper
attr title  "packets passed to higher layer, vector(packetBytes)"
vector 123  mIPv6Network.Router.eth[1].encap  decapPk:vector(packetBytes)  ETV
attr interpolationmode  none
attr source  decapPk
attr title  "packets decapsulated, vector(packetBytes)"
vector 167  mIPv6Network.MN[0].wlan[0].mac  rcvdPkFromHL:vector(packetBytes)  ETV
attr interpolationmode  none
attr source  packetReceivedFromUpper
attr title  "packets received from higher layer, vector(packetBytes)"
vector 166  mIPv6Network.MN[0].wlan[0].mac  sentDownPk:vector(packetBytes)  ETV
attr interpolationmode  none
attr source  packetSentToLower
attr title  "packets sent to lower layer, vector(packetBytes)"
vector 171  mIPv6Network.MN[0].wlan[0].radio  transmissionState:vector  ETV
attr interpolationmode  sample-hold
attr source  transmissionStateChanged
attr title  "Radio transmission state, vector"
vector 206  mIPv6Network.AP_Home.wlan[0].mac  rcvdPkFromLL:vector(packetBytes)  ETV
attr interpolationmode  none
attr source  packetReceivedFromLower
attr title  "packets received from lower layer, vector(packetBytes)"
vector 203  mIPv6Network.AP_Home.wlan[0].mac  passedUpPk:vector(packetBytes)  ETV
attr interpolationmode  none
attr source  packetSentToUpper
attr title  "packets passed to higher layer, vector(packetBytes)"
vector 158  mIPv6Network.MN[0].networkLayer.neighbourDiscovery  startDAD:vector  ETV
attr title  "DAD started, vector"
vector 179  mIPv6Network.CN[0].networkLayer.neighbourDiscovery  startDAD:vector  ETV
attr title  "DAD started, vector"
vector 192  mIPv6Network.CN[0].eth[0].encap  encapPk:vector(packetBytes)  ETV
attr interpolationmode  none
attr source  encapPk
attr title  "packets encapsulated, vector(packetBytes)"
vector 199  mIPv6Network.CN[0].eth[0].queue.dataQueue  rcvdPk:vector(packetBytes)  ETV
attr interpolationmode  none
attr title  "received packets, vector(packetBytes)"
vector 201  mIPv6Network.CN[0].eth[0].queue.dataQueue  queueingTime:vector  ETV
attr interpolationmode  none
attr title  "queueing time, vector"
vector 188  mIPv6Network.CN[0].eth[0].mac  rxPkFromHL:vector(packetBytes)  ETV
attr interpolationmode  none
attr source  rxPkFromHL
attr title  "packet bytes from higher layer, vector(packetBytes)"
vector 183  mIPv6Network.CN[0].eth[0].mac  txPk:vector(packetBytes)  ETV
attr interpolationmode  none
attr source  txPk
attr title  "packets transmitted, vector(packetBytes)"
vector 134  mIPv6Network.Router.eth[2].mac  rxPkOk:vector(packetBytes)  ETV
attr interpolationmode  none
attr source  rxPkOk
attr title  "packets received OK, vector(packetBytes)"
vector 135  mIPv6Network.Router.eth[2].mac  passedUpPk:vector(packetBytes)  ETV
attr interpolationmode  none
attr source  packetSentToUpper
attr title  "packets passed to higher layer, vector(packetBytes)"
vector 143  mIPv6Network.Router.eth[2].encap  decapPk:vector(packetBytes)  ETV
attr interpolationmode  none
attr source  decapPk
attr title  "packets decapsulated, vector(packetBytes)"
vector 163  mIPv6Network.MN[0].wlan[0].agent  acceptConfirm:vector  ETV
attr title  "accepted confirms, vector"
0	139	0.083576285191	90
0	1240	0.805763042059	90
1	358	0.208447097149	1
1	358	0.208447097149	1
5	367	0.208464297149	82
6	129	0.083573485191	82
7	129	0.083573485191	82
10	366	0.208457097149	82
14	362	0.208457097149	64
15	130	0.083573485191	64
20	0	0	0
21	364	0.208457097149	82
23	364	0.208457097149	0
24	0	0	0
24	364	0.208457097149	1
24	364	0.208457097149	0
25	52	0.047650873539	98
25	89	0.078610148867	98
25	258	0.147556079709	98
25	325	0.199342040214	98
25	378	0.208474297149	82
25	409	0.239645451884	98
25	500	0.270470031965	98
25	608	0.332827199948	98
25	674	0.394312739967	98
25	743	0.433314920076	98
25	808	0.493241217545	98
25	876	0.541548673472	98
25	945	0.606391555498	98
25	1012	0.654576438785	98
25	1089	0.705137840936	98
25	1152	0.749624889584	98
25	1215	0.797918176593	98
25	1390	0.842862181345	98
25	1454	0.884952725887	98
25	1493	0.924176094157	98
25	1579	0.973473926259	98
25	1644	1.027340477358	98
25	1670	1.068433399319	98
25	1734	1.105475883928	98
25	1797	1.140647638456	98
25	1859	1.174087667071	98
25	1924	1.225728454	98
25	1985	1.272717652029	98
25	2051	1.331770431955	98
30	51	0.047642393539	98
30	88	0.078601668867	98
30	257	0.147547599709	98
30	324	0.199333560214	98
30	377	0.208467097149	82
30	408	0.239636971884	98
30	499	0.270461551965	98
30	607	0.332818719948	98
30	673	0.394304259967	98
30	742	0.433306440076	98
30	807	0.493232737545	98
30	875	0.541540193472	98
30	944	0.606383075498	98
30	1011	0.654567958785	98
30	1088	0.705129360936	98
30	1151	0.749616409584	98
30	1214	0.797909696593	98
30	1389	0.842853701345	98
30	1453	0.884944245887	98
30	1492	0.924167614157	98
30	1578	0.973465446259	98
30	1643	1.027331997358	98
30	1669	1.068424919319	98
30	1733	1.105467403928	98
30	1796	1.140639158456	98
30	1858	1.174079187071	98
30	1923	1.225719974	98
30	1984	1.272709172029	98
30	2050	1.331761951955	98
34	47	0.047642393539	80
34	84	0.078601668867	80
34	253	0.147547599709	80
34	320	0.199333560214	80
34	373	0.208467097149	64
34	404	0.239636971884	80
34	495	0.270461551965	80
34	603	0.332818719948	80
34	669	0.394304259967	80
34	738	0.433306440076	80
34	803	0.493232737545	80
34	871	0.541540193472	80
34	940	0.606383075498	80
34	1007	0.654567958785	80
34	1084	0.705129360936	80
34	1147	0.749616409584	80
34	1210	0.797909696593	80
34	1385	0.842853701345	80
34	1449	0.884944245887	80
34	1488	0.924167614157	80
34	1574	0.973465446259	80
34	1639	1.027331997358	80
34	1665	1.068424919319	80
34	1729	1.105467403928	80
34	1792	1.140639158456	80
34	1854	1.174079187071	80
34	1919	1.225719974	80
34	1980	1.272709172029	80
34	2046	1.331761951955	80
40	0	0	0
41	49	0.047642393539	98
41	86	0.078601668867	98
41	255	0.147547599709	98
41	322	0.199333560214	98
41	375	0.208467097149	82
41	406	0.239636971884	98
41	497	0.270461551965	98
41	605	0.332818719948	98
41	671	0.394304259967	98
41	740	0.433306440076	98
41	805	0.493232737545	98
41	873	0.541540193472	98
41	942	0.606383075498	98
41	1009	0.654567958785	98
41	1086	0.705129360936	98
41	1149	0.749616409584	98
41	1212	0.797909696593	98
41	1387	0.842853701345	98
41	1451	0.884944245887	98
41	1490	0.924167614157	98
41	1576	0.973465446259	98
41	1641	1.027331997358	98
41	1667	1.068424919319	98
41	1731	1.105467403928	98
41	1794	1.140639158456	98
41	1856	1.174079187071	98
41	1921	1.225719974	98
41	1982	1.272709172029	98
41	2048	1.331761951955	98
43	49	0.047642393539	0
43	86	0.078601668867	0
43	255	0.147547599709	0
43	322	0.199333560214	0
43	375	0.208467097149	0
43	406	0.239636971884	0
43	497	0.270461551965	0
43	605	0.332818719948	0
43	671	0.394304259967	0
43	740	0.433306440076	0
43	805	0.493232737545	0
43	873	0.541540193472	0
43	942	0.606383075498	0
43	1009	0.654567958785	0
43	1086	0.705129360936	0
43	1149	0.749616409584	0
43	1212	0.797909696593	0
43	1387	0.842853701345	0
43	1451	0.884944245887	0
43	1490	0.924167614157	0
43	1576	0.973465446259	0
43	1641	1.027331997358	0
43	1667	1.068424919319	0
43	1731	1.105467403928	0
43	1794	1.140639158456	0
43	1856	1.174079187071	0
43	1921	1.225719974	0
43	1982	1.272709172029	0
43	2048	1.331761951955	0
44	0	0	0
44	49	0.047642393539	1
44	49	0.047642393539	0
44	86	0.078601668867	1
44	86	0.078601668867	0
44	255	0.147547599709	1
44	255	0.147547599709	0
44	322	0.199333560214	1
44	322	0.199333560214	0
44	375	0.208467097149	1
44	375	0.208467097149	0
44	406	0.239636971884	1
44	406	0.239636971884	0
44	497	0.270461551965	1
44	497	0.270461551965	0
44	605	0.332818719948	1
44	605	0.332818719948	0
44	671	0.394304259967	1
44	671	0.394304259967	0
44	740	0.433306440076	1
44	740	0.433306440076	0
44	805	0.493232737545	1
44	805	0.493232737545	0
44	873	0.541540193472	1
44	873	0.541540193472	0
44	942	0.606383075498	1
44	942	0.606383075498	0
44	1009	0.654567958785	1
44	1009	0.654567958785	0
44	1086	0.705129360936	1
44	1086	0.705129360936	0
44	1149	0.749616409584	1
44	1149	0.749616409584	0
44	1212	0.797909696593	1
44	1212	0.797909696593	0
44	1387	0.842853701345	1
44	1387	0.842853701345	0
44	1451	0.884944245887	1
44	1451	0.884944245887	0
44	1490	0.924167614157	1
44	1490	0.924167614157	0
44	1576	0.973465446259	1
44	1576	0.973465446259	0
44	1641	1.027331997358	1
44	1641	1.027331997358	0
44	1667	1.068424919319	1
44	1667	1.068424919319	0
44	1731	1.105467403928	1
44	1731	1.105467403928	0
44	1794	1.140639158456	1
44	1794	1.140639158456	0
44	1856	1.174079187071	1
44	1856	1.174079187071	0
44	1921	1.225719974	1
44	1921	1.225719974	0
44	1982	1.272709172029	1
44	1982	1.272709172029	0
44	2048	1.331761951955	1
44	2048	1.331761951955	0
45	211	0.137049966794	1
45	211	0.137049966794	1
49	220	0.137067166794	82
50	117	0.083563485191	82
51	117	0.083563485191	82
54	219	0.137059966794	82
58	215	0.137059966794	64
59	118	0.083563485191	64
64	0	0	0
65	217	0.137059966794	82
67	217	0.137059966794	0
68	0	0	0
68	217	0.137059966794	1
68	217	0.137059966794	0
69	27	0.035833285897	98
69	156	0.08946779834	98
69	195	0.13080880179	98
69	231	0.137077166794	82
69	300	0.184273600671	98
69	435	0.246976429764	98
69	543	0.282685122946	98
69	584	0.327804884761	98
69	648	0.374353632107	98
69	718	0.418816222632	98
69	782	0.471327026486	98
69	850	0.512998737422	98
69	906	0.569506188062	98
69	987	0.631955298315	98
69	1049	0.670010446887	98
69	1127	0.727715796772	98
69	1189	0.778359581548	98
69	1365	0.835926798209	98
69	1428	0.871630772063	98
69	1518	0.940494876438	98
69	1555	0.971535927103	98
69	1620	1.020539471367	98
69	1708	1.087568782745	98
69	1772	1.121572956508	98
69	1822	1.156221620124	98
69	1898	1.212846604427	98
69	1949	1.263891044408	98
69	2027	1.326682273559	98
74	26	0.035824805897	98
74	155	0.08945931834	98
74	194	0.13080032179	98
74	230	0.137069966794	82
74	299	0.184265120671	98
74	434	0.246967949764	98
74	542	0.282676642946	98
74	583	0.327796404761	98
74	647	0.374345152107	98
74	717	0.418807742632	98
74	781	0.471318546486	98
74	849	0.512990257422	98
74	905	0.569497708062	98
74	986	0.631946818315	98
74	1048	0.670001966887	98
74	1126	0.727707316772	98
74	1188	0.778351101548	98
74	1364	0.835918318209	98
74	1427	0.871622292063	98
74	1517	0.940486396438	98
74	1554	0.971527447103	98
74	1619	1.020530991367	98
74	1707	1.087560302745	98
74	1771	1.121564476508	98
74	1821	1.156213140124	98
74	1897	1.212838124427	98
74	1948	1.263882564408	98
74	2026	1.326673793559	98
78	22	0.035824805897	80
78	151	0.08945931834	80
78	190	0.13080032179	80
78	226	0.137069966794	64
78	295	0.184265120671	80
78	430	0.246967949764	80
78	538	0.282676642946	80
78	579	0.327796404761	80
78	643	0.374345152107	80
78	713	0.418807742632	80
78	777	0.471318546486	80
78	845	0.512990257422	80
78	901	0.569497708062	80
78	982	0.631946818315	80
78	1044	0.670001966887	80
78	1122	0.727707316772	80
78	1184	0.778351101548	80
78	1360	0.835918318209	80
78	1423	0.871622292063	80
78	1513	0.940486396438	80
78	1550	0.971527447103	80
78	1615	1.020530991367	80
78	1703	1.087560302745	80
78	1767	1.121564476508	80
78	1817	1.156213140124	80
78	1893	1.212838124427	80
78	1944	1.263882564408	80
78	2022	1.326673793559	80
84	0	0	0
85	24	0.035824805897	98
85	153	0.08945931834	98
85	192	0.13080032179	98
85	228	0.137069966794	82
85	297	0.184265120671	98
85	432	0.246967949764	98
85	540	0.282676642946	98
85	581	0.327796404761	98
85	645	0.374345152107	98
85	715	0.418807742632	98
85	779	0.471318546486	98
85	847	0.512990257422	98
85	903	0.569497708062	98
85	984	0.631946818315	98
85	1046	0.670001966887	98
85	1124	0.727707316772	98
85	1186	0.778351101548	98
85	1362	0.835918318209	98
85	1425	0.871622292063	98
85	1515	0.940486396438	98
85	1552	0.971527447103	98
85	1617	1.020530991367	98
85	1705	1.087560302745	98
85	1769	1.121564476508	98
85	1819	1.156213140124	98
85	1895	1.212838124427	98
85	1946	1.263882564408	98
85	2024	1.326673793559	98
87	24	0.035824805897	0
87	153	0.08945931834	0
87	192	0.13080032179	0
87	228	0.137069966794	0
87	297	0.184265120671	0
87	432	0.246967949764	0
87	540	0.282676642946	0
87	581	0.327796404761	0
87	645	0.374345152107	0
87	715	0.418807742632	0
87	779	0.471318546486	0
87	847	0.512990257422	0
87	903	0.569497708062	0
87	984	0.631946818315	0
87	1046	0.670001966887	0
87	1124	0.727707316772	0
87	1186	0.778351101548	0
87	1362	0.835918318209	0
87	1425	0.871622292063	0
87	1515	0.940486396438	0
87	1552	0.971527447103	0
87	1617	1.020530991367	0
87	1705	1.087560302745	0
87	1769	1.121564476508	0
87	1819	1.156213140124	0
87	1895	1.212838124427	0
87	1946	1.263882564408	0
87	2024	1.326673793559	0
88	0	0	0
88	24	0.035824805897	1
88	24	0.035824805897	0
88	153	0.08945931834	1
88	153	0.08945931834	0
88	192	0.13080032179	1
88	192	0.13080032179	0