version 2
run MobilityTrainSpeed-0-20160529-11:42:17-6152
attr configname MobilityTrainSpeed
attr datetime 20160529-11:42:17
attr experiment MobilityTrainSpeed
attr inifile C:/Users/Anu/Desktop/MS_Prog/Spring_2016/MobileCommunications/OmnetSim/omnetpp-4.1-src-windows/workspace/inet-hipsim-v102/examples/hip/MobileHIP_Multihome/omnetpp.ini
attr iterationvars ""
attr iterationvars2 $repetition=0
attr measurement ""
attr network HIPWirelessNetwork_Multihome
attr processid 6152
attr repetition 0
attr replication #0
attr resultdir results
attr runnumber 0
attr seedset 0

vector 115  HIPWirelessNetwork_Multihome.mobilehiphost.wlan[0].mac  RadioState  ETV
attr enum  "IDLE=0, RECV=1, SLEEP=3, TRANSMIT=2"
attr enumname  RadioState
vector 114  HIPWirelessNetwork_Multihome.mobilehiphost.wlan[0].mac  State  ETV
attr enum  "BACKOFF=3, DEFER=1, IDLE=0, RECEIVE=8, WAITACK=4, WAITBROADCAST=5, WAITCTS=6, WAITDIFS=2, WAITSIFS=7"
attr enumname  Ieee80211Mac
vector 126  HIPWirelessNetwork_Multihome.mobilehiphost.wlan[1].mac  RadioState  ETV
attr enum  "IDLE=0, RECV=1, SLEEP=3, TRANSMIT=2"
attr enumname  RadioState
vector 125  HIPWirelessNetwork_Multihome.mobilehiphost.wlan[1].mac  State  ETV
attr enum  "BACKOFF=3, DEFER=1, IDLE=0, RECEIVE=8, WAITACK=4, WAITBROADCAST=5, WAITCTS=6, WAITDIFS=2, WAITSIFS=7"
attr enumname  Ieee80211Mac
vector 187  HIPWirelessNetwork_Multihome.AP_Home.wlan.mac  RadioState  ETV
attr enum  "IDLE=0, RECV=1, SLEEP=3, TRANSMIT=2"
attr enumname  RadioState
vector 186  HIPWirelessNetwork_Multihome.AP_Home.wlan.mac  State  ETV
attr enum  "BACKOFF=3, DEFER=1, IDLE=0, RECEIVE=8, WAITACK=4, WAITBROADCAST=5, WAITCTS=6, WAITDIFS=2, WAITSIFS=7"
attr enumname  Ieee80211Mac
vector 204  HIPWirelessNetwork_Multihome.AP_1.wlan.mac  RadioState  ETV
attr enum  "IDLE=0, RECV=1, SLEEP=3, TRANSMIT=2"
attr enumname  RadioState
vector 203  HIPWirelessNetwork_Multihome.AP_1.wlan.mac  State  ETV
attr enum  "BACKOFF=3, DEFER=1, IDLE=0, RECEIVE=8, WAITACK=4, WAITBROADCAST=5, WAITCTS=6, WAITDIFS=2, WAITSIFS=7"
attr enumname  Ieee80211Mac
vector 266  HIPWirelessNetwork_Multihome.R_3.networkLayer.neighbourDiscovery  "Starting DAD"  ETV
vector 2  HIPWirelessNetwork_Multihome.R_3.eth[0].mac  framesSent  ETV
vector 4  HIPWirelessNetwork_Multihome.R_3.eth[0].mac  bytesSent  ETV
vector 73  HIPWirelessNetwork_Multihome.R_2.eth[1].mac  framesReceivedOK  ETV
vector 75  HIPWirelessNetwork_Multihome.R_2.eth[1].mac  bytesReceivedOK  ETV
vector 79  HIPWirelessNetwork_Multihome.R_2.eth[1].mac  framesPassedToHL  ETV
vector 16  HIPWirelessNetwork_Multihome.R_3.eth[1].mac  framesSent  ETV
vector 18  HIPWirelessNetwork_Multihome.R_3.eth[1].mac  bytesSent  ETV
vector 189  HIPWirelessNetwork_Multihome.AP_Home.eth[0]  framesReceivedOK  ETV
vector 191  HIPWirelessNetwork_Multihome.AP_Home.eth[0]  bytesReceivedOK  ETV
vector 195  HIPWirelessNetwork_Multihome.AP_Home.eth[0]  framesPassedToHL  ETV
vector 183  HIPWirelessNetwork_Multihome.AP_Home.relayUnit  "buffer level"  ETV
vector 44  HIPWirelessNetwork_Multihome.R_1.eth[1].mac  framesSent  ETV
vector 46  HIPWirelessNetwork_Multihome.R_1.eth[1].mac  bytesSent  ETV
vector 206  HIPWirelessNetwork_Multihome.AP_1.eth[0]  framesReceivedOK  ETV
vector 208  HIPWirelessNetwork_Multihome.AP_1.eth[0]  bytesReceivedOK  ETV
vector 212  HIPWirelessNetwork_Multihome.AP_1.eth[0]  framesPassedToHL  ETV
vector 200  HIPWirelessNetwork_Multihome.AP_1.relayUnit  "buffer level"  ETV
vector 268  HIPWirelessNetwork_Multihome.R_2.networkLayer.neighbourDiscovery  "Starting DAD"  ETV
vector 58  HIPWirelessNetwork_Multihome.R_2.eth[0].mac  framesSent  ETV
vector 60  HIPWirelessNetwork_Multihome.R_2.eth[0].mac  bytesSent  ETV
vector 31  HIPWirelessNetwork_Multihome.R_1.eth[0].mac  framesReceivedOK  ETV
vector 33  HIPWirelessNetwork_Multihome.R_1.eth[0].mac  bytesReceivedOK  ETV
vector 37  HIPWirelessNetwork_Multihome.R_1.eth[0].mac  framesPassedToHL  ETV
vector 72  HIPWirelessNetwork_Multihome.R_2.eth[1].mac  framesSent  ETV
vector 74  HIPWirelessNetwork_Multihome.R_2.eth[1].mac  bytesSent  ETV
vector 3  HIPWirelessNetwork_Multihome.R_3.eth[0].mac  framesReceivedOK  ETV
vector 5  HIPWirelessNetwork_Multihome.R_3.eth[0].mac  bytesReceivedOK  ETV
vector 9  HIPWirelessNetwork_Multihome.R_3.eth[0].mac  framesPassedToHL  ETV
vector 86  HIPWirelessNetwork_Multihome.R_2.eth[2].mac  framesSent  ETV
vector 88  HIPWirelessNetwork_Multihome.R_2.eth[2].mac  bytesSent  ETV
vector 255  HIPWirelessNetwork_Multihome.switch.mac[3]  framesReceivedOK  ETV
vector 257  HIPWirelessNetwork_Multihome.switch.mac[3]  bytesReceivedOK  ETV
vector 261  HIPWirelessNetwork_Multihome.switch.mac[3]  framesPassedToHL  ETV
vector 217  HIPWirelessNetwork_Multihome.switch.relayUnit  "buffer level"  ETV
vector 218  HIPWirelessNetwork_Multihome.switch.mac[0]  framesSent  ETV
vector 220  HIPWirelessNetwork_Multihome.switch.mac[0]  bytesSent  ETV
vector 230  HIPWirelessNetwork_Multihome.switch.mac[1]  framesSent  ETV
vector 232  HIPWirelessNetwork_Multihome.switch.mac[1]  bytesSent  ETV
vector 242  HIPWirelessNetwork_Multihome.switch.mac[2]  framesSent  ETV
vector 244  HIPWirelessNetwork_Multihome.switch.mac[2]  bytesSent  ETV
vector 135  HIPWirelessNetwork_Multihome.hipsrv.eth[0].mac  framesReceivedOK  ETV
vector 137  HIPWirelessNetwork_Multihome.hipsrv.eth[0].mac  bytesReceivedOK  ETV
vector 141  HIPWirelessNetwork_Multihome.hipsrv.eth[0].mac  framesPassedToHL  ETV
vector 153  HIPWirelessNetwork_Multihome.dnssrv.eth[0].mac  framesReceivedOK  ETV
vector 155  HIPWirelessNetwork_Multihome.dnssrv.eth[0].mac  bytesReceivedOK  ETV
vector 159  HIPWirelessNetwork_Multihome.dnssrv.eth[0].mac  framesPassedToHL  ETV
vector 172  HIPWirelessNetwork_Multihome.rvs.eth[0].mac  framesReceivedOK  ETV
vector 174  HIPWirelessNetwork_Multihome.rvs.eth[0].mac  bytesReceivedOK  ETV
vector 178  HIPWirelessNetwork_Multihome.rvs.eth[0].mac  framesPassedToHL  ETV
vector 267  HIPWirelessNetwork_Multihome.R_1.networkLayer.neighbourDiscovery  "Starting DAD"  ETV
vector 30  HIPWirelessNetwork_Multihome.R_1.eth[0].mac  framesSent  ETV
vector 32  HIPWirelessNetwork_Multihome.R_1.eth[0].mac  bytesSent  ETV
vector 59  HIPWirelessNetwork_Multihome.R_2.eth[0].mac  framesReceivedOK  ETV
vector 61  HIPWirelessNetwork_Multihome.R_2.eth[0].mac  bytesReceivedOK  ETV
vector 65  HIPWirelessNetwork_Multihome.R_2.eth[0].mac  framesPassedToHL  ETV
vector 105  HIPWirelessNetwork_Multihome.mobilehiphost.wlan[0].agent  SCAN_REQUEST  ETV
vector 116  HIPWirelessNetwork_Multihome.mobilehiphost.wlan[1].agent  SCAN_REQUEST  ETV
vector 272  HIPWirelessNetwork_Multihome.rvs.networkLayer.neighbourDiscovery  "Starting DAD"  ETV
vector 171  HIPWirelessNetwork_Multihome.rvs.eth[0].mac  framesSent  ETV
vector 173  HIPWirelessNetwork_Multihome.rvs.eth[0].mac  bytesSent  ETV
vector 243  HIPWirelessNetwork_Multihome.switch.mac[2]  framesReceivedOK  ETV
vector 245  HIPWirelessNetwork_Multihome.switch.mac[2]  bytesReceivedOK  ETV
vector 249  HIPWirelessNetwork_Multihome.switch.mac[2]  framesPassedToHL  ETV
vector 254  HIPWirelessNetwork_Multihome.switch.mac[3]  framesSent  ETV
vector 256  HIPWirelessNetwork_Multihome.switch.mac[3]  bytesSent  ETV
vector 87  HIPWirelessNetwork_Multihome.R_2.eth[2].mac  framesReceivedOK  ETV
vector 89  HIPWirelessNetwork_Multihome.R_2.eth[2].mac  bytesReceivedOK  ETV
vector 93  HIPWirelessNetwork_Multihome.R_2.eth[2].mac  framesPassedToHL  ETV
vector 269  HIPWirelessNetwork_Multihome.mobilehiphost.networkLayer.neighbourDiscovery  "Starting DAD"  ETV
vector 270  HIPWirelessNetwork_Multihome.hipsrv.networkLayer.neighbourDiscovery  "Starting DAD"  ETV
vector 134  HIPWirelessNetwork_Multihome.hipsrv.eth[0].mac  framesSent  ETV
vector 136  HIPWirelessNetwork_Multihome.hipsrv.eth[0].mac  bytesSent  ETV
vector 219  HIPWirelessNetwork_Multihome.switch.mac[0]  framesReceivedOK  ETV
vector 221  HIPWirelessNetwork_Multihome.switch.mac[0]  bytesReceivedOK  ETV
vector 225  HIPWirelessNetwork_Multihome.switch.mac[0]  framesPassedToHL  ETV
vector 271  HIPWirelessNetwork_Multihome.dnssrv.networkLayer.neighbourDiscovery  "Starting DAD"  ETV
vector 152  HIPWirelessNetwork_Multihome.dnssrv.eth[0].mac  framesSent  ETV
vector 154  HIPWirelessNetwork_Multihome.dnssrv.eth[0].mac  bytesSent  ETV
vector 231  HIPWirelessNetwork_Multihome.switch.mac[1]  framesReceivedOK  ETV
vector 233  HIPWirelessNetwork_Multihome.switch.mac[1]  bytesReceivedOK  ETV
vector 237  HIPWirelessNetwork_Multihome.switch.mac[1]  framesPassedToHL  ETV
vector 111  HIPWirelessNetwork_Multihome.mobilehiphost.wlan[0].agent  SCAN_CONFIRM  ETV
vector 108  HIPWirelessNetwork_Multihome.mobilehiphost.wlan[0].agent  AUTHENTICATE_REQ  ETV
vector 110  HIPWirelessNetwork_Multihome.mobilehiphost.wlan[0].agent  AUTHENTICATE_CONFIRM  ETV
vector 107  HIPWirelessNetwork_Multihome.mobilehiphost.wlan[0].agent  ASSOC_REQ  ETV
vector 109  HIPWirelessNetwork_Multihome.mobilehiphost.wlan[0].agent  ASSOC_CONFIRM  ETV
vector 100  HIPWirelessNetwork_Multihome.mobilehiphost.hip  "HIP_DNS msgs"  ETV
vector 127  HIPWirelessNetwork_Multihome.hipsrv.hip  "HIP_DNS msgs"  ETV
vector 164  HIPWirelessNetwork_Multihome.rvs.hip  "HIP_DNS msgs"  ETV
vector 188  HIPWirelessNetwork_Multihome.AP_Home.eth[0]  framesSent  ETV
vector 190  HIPWirelessNetwork_Multihome.AP_Home.eth[0]  bytesSent  ETV
vector 17  HIPWirelessNetwork_Multihome.R_3.eth[1].mac  framesReceivedOK  ETV
vector 19  HIPWirelessNetwork_Multihome.R_3.eth[1].mac  bytesReceivedOK  ETV
vector 23  HIPWirelessNetwork_Multihome.R_3.eth[1].mac  framesPassedToHL  ETV
vector 98  HIPWirelessNetwork_Multihome.mobilehiphost.udpApp[0]  streamRTT  ETV
vector 99  HIPWirelessNetwork_Multihome.mobilehiphost.udpApp[0]  streamJitter  ETV
vector 132  HIPWirelessNetwork_Multihome.hipsrv.eth[0].queue  "queue length"  ETV
vector 122  HIPWirelessNetwork_Multihome.mobilehiphost.wlan[1].agent  SCAN_CONFIRM  ETV
vector 119  HIPWirelessNetwork_Multihome.mobilehiphost.wlan[1].agent  AUTHENTICATE_REQ  ETV
vector 121  HIPWirelessNetwork_Multihome.mobilehiphost.wlan[1].agent  AUTHENTICATE_CONFIRM  ETV
vector 118  HIPWirelessNetwork_Multihome.mobilehiphost.wlan[1].agent  ASSOC_REQ  ETV
vector 120  HIPWirelessNetwork_Multihome.mobilehiphost.wlan[1].agent  ASSOC_CONFIRM  ETV
vector 205  HIPWirelessNetwork_Multihome.AP_1.eth[0]  framesSent  ETV
vector 207  HIPWirelessNetwork_Multihome.AP_1.eth[0]  bytesSent  ETV
vector 45  HIPWirelessNetwork_Multihome.R_1.eth[1].mac  framesReceivedOK  ETV
vector 47  HIPWirelessNetwork_Multihome.R_1.eth[1].mac  bytesReceivedOK  ETV
vector 51  HIPWirelessNetwork_Multihome.R_1.eth[1].mac  framesPassedToHL  ETV
2	47	0.026155509089	1
2	7327	3.500614365299	2
2	7759	3.622253437179	3
2	8485	3.802305197175	4
2	8691	3.835972370959	5
2	8842	3.857504891852	6
2	9295	4.000604433094	7
2	9453	4.032311775647	8
2	9770	4.073534247286	9
2	10047	4.113807047285	10
2	11326	4.645814228866	11
2	12559	5.145814321422	12
2	13772	5.645814413996	13
2	15009	6.145814506575	14
2	16360	6.645814599155	15
2	17070	6.786579047463	16
2	17115	6.788291877264	17
2	17351	6.82107165593	18
2	17494	6.83117165593	19
2	18250	7.145814691736	20
3	136	0.062112053225	1
3	7747	3.62222655718	2
3	8473	3.802278477176	3
3	8557	3.832312277174	4
3	8776	3.856030570954	5
3	9012	3.887511811851	6
3	9387	4.030611513093	7
3	9704	4.072379975642	8
3	9979	4.112379975642	9
3	10298	4.143814127284	10
3	10343	4.153814127284	11
3	10387	4.163814127284	12
3	11570	4.674693858302	13
3	11613	4.684693858302	14
3	11668	4.694693858302	15
3	12747	5.165975721417	16
3	12790	5.175975721417	17
3	12870	5.185975721417	18
3	13987	5.665975813991	19
3	14030	5.675975813991	20
3	14084	5.685975813991	21
3	15229	6.175842066574	22
3	15309	6.185842066574	23
3	15354	6.195842066574	24
3	16523	6.66597599915	25
3	16566	6.67597599915	26
3	16669	6.68597599915	27
3	17285	6.819536386132	28
3	17428	6.829536386132	29
3	18478	7.175842251735	30
3	18558	7.185842251735	31
3	18627	7.195842251735	32
4	47	0.026155509089	64
4	7327	3.500614365299	128
4	7759	3.622253437179	194
4	8485	3.802305197175	258
4	8691	3.835972370959	322
4	8842	3.857504891852	386
4	9295	4.000604433094	452
4	9453	4.032311775647	516
4	9770	4.073534247286	580
4	10047	4.113807047285	646
4	11326	4.645814228866	968
4	12559	5.145814321422	1290
4	13772	5.645814413996	1612
4	15009	6.145814506575	1934
4	16360	6.645814599155	2256
4	17070	6.786579047463	2320
4	17115	6.788291877264	2384
4	17351	6.82107165593	2448
4	17494	6.83117165593	2512
4	18250	7.145814691736	2834
5	136	0.062112053225	64
5	7747	3.62222655718	128
5	8473	3.802278477176	192
5	8557	3.832312277174	258
5	8776	3.856030570954	322
5	9012	3.887511811851	386
5	9387	4.030611513093	452
5	9704	4.072379975642	516
5	9979	4.112379975642	580
5	10298	4.143814127284	646
5	10343	4.153814127284	712
5	10387	4.163814127284	778
5	11570	4.674693858302	1100
5	11613	4.684693858302	1422
5	11668	4.694693858302	1744
5	12747	5.165975721417	2066
5	12790	5.175975721417	2388
5	12870	5.185975721417	2710
5	13987	5.665975813991	3032
5	14030	5.675975813991	3354
5	14084	5.685975813991	3676
5	15229	6.175842066574	3998
5	15309	6.185842066574	4320
5	15354	6.195842066574	4642
5	16523	6.66597599915	4964
5	16566	6.67597599915	5286
5	16669	6.68597599915	5608
5	17285	6.819536386132	5672
5	17428	6.829536386132	5736
5	18478	7.175842251735	6058
5	18558	7.185842251735	6380
5	18627	7.195842251735	6702
9	136	0.062112053225	1
9	7747	3.62222655718	2
9	8473	3.802278477176	3
9	8557	3.832312277174	4
9	8776	3.856030570954	5
9	9012	3.887511811851	6
9	9387	4.030611513093	7
9	9704	4.072379975642	8
9	9979	4.112379975642	9
9	10298	4.143814127284	10
9	10343	4.153814127284	11
9	10387	4.163814127284	12
9	11570	4.674693858302	13
9	11613	4.684693858302	14
9	11668	4.694693858302	15
9	12747	5.165975721417	16
9	12790	5.175975721417	17
9	12870	5.185975721417	18
9	13987	5.665975813991	19
9	14030	5.675975813991	20
9	14084	5.685975813991	21
9	15229	6.175842066574	22
9	15309	6.185842066574	23
9	15354	6.195842066574	24
9	16523	6.66597599915	25
9	16566	6.67597599915	26
9	16669	6.68597599915	27
9	17285	6.819536386132	28
9	17428	6.829536386132	29
9	18478	7.175842251735	30
9	18558	7.185842251735	31
9	18627	7.195842251735	32
16	57	0.026165509089	1
16	105	0.043512566464	2
16	182	0.078243543414	3
16	348	0.133840384093	4
16	440	0.194809731553	5
16	515	0.225561323473	6
16	601	0.280238683419	7
16	649	0.324618999501	8
16	737	0.372100277607	9
16	818	0.428770946058	10
16	868	0.463927997991	11
16	952	0.518241224659	12
16	1040	0.565785285194	13
16	1121	0.604140355537	14
16	1190	0.644272019589	15
16	1331	0.699212423829	16
16	1406	0.734739741809	17
16	1505	0.791240816531	18
16	1587	0.854758612797	19
16	1684	0.919886351539	20
16	1777	0.951453863097	21
16	1867	0.986202971668	22
16	1984	1.024875856994	23
16	2071	1.075234615432	24
16	2285	1.128272475238	25
16	2430	1.196382435607	26
16	2474	1.238279913673	27
16	2570	1.284140143226	28
16	2646	1.326668876511	29
16	2736	1.383055613077	30
16	2851	1.438815220937	31
16	2989	1.497458202278	32
16	3078	1.544608950221	33
16	3168	1.578303905685	34
16	3262	1.631276915917	35
16	3322	1.670127423224	36
16	3453	1.717562019997	37
16	3507	1.765479066944	38
16	3640	1.824048718879	39
16	3675	1.855551094258	40
16	3770	1.910173476956	41
16	3860	1.956629345932	42
16	3959	1.989396025541	43
16	4003	2.021419550052	44
16	4075	2.05208466883	45
16	4176	2.096483791192	46
16	4265	2.146065748874	47
16	4349	2.176806620638	48
16	4444	2.24178953912	49
16	4534	2.273063096077	50
16	4572	2.305077898426	51
16	4661	2.345768399786	52
16	4762	2.405802169663	53
16	4851	2.444552144377	54
16	4941	2.483648729544	55
16	5072	2.533162237783	56
16	5227	2.597346781105	57
16	5321	2.64558736604	58
16	5492	2.710850782201	59
16	5587	2.772772655414	60
16	5685	2.811392962524	61
16	5763	2.862120990977	62
16	5860	2.921338678198	63
16	6005	2.978332572002	64
16	6101	3.014126482503	65
16	6151	3.047830328847	66
16	6248	3.099918027705	67
16	6329	3.132439559407	68
16	6474	3.201812736762	69
16	6607	3.270275543068	70
16	6703	3.325493460489	71
16	6791	3.369382800958	72
16	6886	3.41927845566	73
16	6977	3.465323749318	74
16	7379	3.509067969297	75
16	7475	3.544367474618	76
16	7527	3.586550755829	77
16	7821	3.643647228807	78
16	7995	3.684460344949	79
16	8133	3.729657423003	80
16	8312	3.76792120723	81
16	8448	3.798308734176	82
16	8569	3.832338997173	83
16	8621	3.833228794974	84
16	8785	3.856047290953	85
16	8866	3.860300569505	86
16	9021	3.88752853185	87
16	9055	3.893222481048	88
16	9120	3.922315707857	89
16	9178	3.964647154387	90
16	9396	4.030628393092	91
16	9469	4.032796009637	92
16	9713	4.072396695641	93
16	9899	4.092485528744	94
16	9988	4.112396695641	95
16	10230	4.13179529403	96
16	10307	4.143831007283	97
16	10352	4.153831007283	98
16	10396	4.163831007283	99
16	10431	4.166414665744	100
16	10581	4.227744043279	101
16	10634	4.277651162422	102
16	10728	4.337180225657	103
16	10821	4.376485305282	104
16	10939	4.445244173428	105
16	11040	4.513282277762	106
16	11132	4.568527299576	107
16	11264	4.630348689454	108
16	11527	4.668409397956	109
16	11579	4.674731218301	110
16	11624	4.684731218301	111
16	11677	4.694731218301	112
16	11769	4.716482265219	113
16	11802	4.756830357899	114
16	11903	4.810026853912	115
16	12036	4.868371207572	116
16	12130	4.937056052542	117
16	12220	4.980995092118	118
16	12321	5.046709581954	119
16	12416	5.088017567829	120
16	12499	5.140340171758	121
16	12756	5.166013081416	122
16	12799	5.176013081416	123
16	12834	5.184044611047	124
16	12879	5.186013081416	125
16	13008	5.232239006089	126
16	13115	5.299020263573	127
16	13198	5.338130643565	128
16	13249	5.381262775968	129
16	13352	5.446134205443	130
16	13484	5.514865662028	131
16	13555	5.55128436775	132
16	13655	5.587693586638	133
16	13796	5.652833291832	134
16	13996	5.66601317399	135
16	14039	5.67601317399	136
16	14093	5.68601317399	137
16	14183	5.703753547565	138
16	14254	5.749882269081	139
16	14368	5.817011017406	140
16	14458	5.87310337559	141
16	14552	5.917179095527	142
16	14676	5.985456414349	143
16	14759	6.020946468399	144
16	14810	6.055639287722	145
16	14949	6.12309801157	146
16	15238	6.175879426573	147
16	15273	6.180495389154	148
16	15318	6.185879426573	149
16	15363	6.195879426573	150
16	15436	6.229320225206	151
16	15526	6.275312710881	152
16	15581	6.320568596936	153
16	15670	6.353370284485	154
16	15770	6.39601908396	155
16	15860	6.455509253675	156
16	15984	6.486694646142	157
16	16010	6.517459562047	158
16	16133	6.581170636516	159
16	16233	6.613816614931	160
16	16532	6.666013359149	161
16	16575	6.676013359149	162
16	16628	6.679707698009	163
16	16678	6.686013359149	164
16	16754	6.740078995923	165
16	16974	6.773978731349	166
16	17294	6.819553106131	167
16	17377	6.826987230028	168
16	17437	6.829553106131	169
16	17685	6.895986822466	170
16	17776	6.934965499941	171
16	17888	6.988808099491	172
16	17971	7.030350897827	173
16	18090	7.084803994691	174
16	18185	7.118333924284	175
16	18487	7.175879611734	176
16	18522	7.182512325338	177
16	18567	7.185879611734	178
16	18636	7.195879611734	179
16	18721	7.247803672096	180
16	18819	7.297144397311	181
16	18891	7.34072963925	182
16	19029	7.405671912421	183
16	19123	7.45354699076	184
16	19187	7.491137135511	185
16	19296	7.552304312808	186
16	19445	7.622201757829	187
16	19581	7.6868732993	188
16	19711	7.75191437327	189
16	19792	7.784189463766	190
16	19858	7.836849707994	191
16	19956	7.897144273617	192
16	20335	7.963190760598	193
16	20474	8.001482599679	194
16	20798	8.058081187646	195
16	21083	8.119671972275	196
16	21164	8.150158818822	197
16	21436	8.184065873633	198
16	21606	8.233098921283	199
16	21710	8.286391710621	200
16	21873	8.356312729996	201
16	21962	8.413143196311	202
16	22063	8.462001489093	203
16	22229	8.503533511254	204
16	22350	8.53920620228	205
16	22445	8.579877728678	206
16	22470	8.620503030836	207
16	22616	8.651057632861	208
16	22890	8.684726756799	209
16	23139	8.750919824975	210
16	23276	8.796836569678	211
16	23366	8.836581510506	212
16	23468	8.894615736208	213
16	23551	8.927097168997	214
16	23653	8.995779365686	215
16	23737	9.032321717323	216
16	23770	9.064964687855	217
16	23857	9.112494925747	218
16	24008	9.149042296001	219
16	24392	9.217538098889	220
16	24493	9.270540567283	221
16	24582	9.304867188269	222
16	24628	9.342126241177	223
16	24721	9.380947373136	224
16	24813	9.436736746718	225
16	24918	9.502231269403	226
16	25055	9.567939556155	227
16	25081	9.609905702078	228
16	25261	9.65544186697	229
16	25655	9.721619457207	230
16	25713	9.777507851547	231
16	25814	9.813248994252	232
16	25872	9.86739497105	233
16	25998	9.924786937314	234
16	26098	9.95516194463	235
16	26213	10.016092309935	236
16	26359	10.085506703697	237
16	26442	10.120169048301	238
16	26691	10.16569581165	239
16	26948	10.227914309269	240
16	27075	10.294263646789	241
16	27214	10.362465513832	242
16	27266	10.417979125659	243
16	27365	10.455096312983	244
16	27428	10.494211141409	245
16	27476	10.525065488738	246
16	27545	10.560097934973	247
16	27596	10.592140057577	248
16	27679	10.63790649233	249
16	28100	10.701147737005	250
16	28226	10.759622555053	251
16	28315	10.821331289619	252
16	28415	10.851901350015	253
16	28468	10.904007185057	254
16	28626	10.96553376943	255
16	28716	11.015671740631	256
16	28813	11.07343523574	257
16	28913	11.115270914742	258
16	29204	11.168374518397	259
16	29423	11.220304769788	260
16	29485	11.256200773807	261
16	29574	11.305417630828	262
16	29708	11.37035040788	263
16	29798	11.421246012855	264
16	29901	11.489875384006	265
16	29985	11.532419008477	266
16	30091	11.599390691792	267
16	30180	11.637398287116	268
16	30601	11.688531086912	269
16	30721	11.741324455506	270
16	30823	11.79182399055	271
16	30918	11.859028421323	272
16	31007	11.897899663382	273
16	31080	11.947238023317	274
16	31127	11.979791037811	275
17	7311	3.5005876453	1
17	7876	3.64922847532	2
17	8605	3.833201914975	3
17	8678	3.83595565096	4
17	8829	3.857488171853	5
17	9282	4.000587553095	6
17	9440	4.032295055648	7
17	9757	4.073517527287	8
17	10034	4.113790167286	9
17	11317	4.645776868867	10
17	12550	5.145776961423	11
17	13763	5.645777053997	12
17	15000	6.145777146576	13
17	16351	6.645777239156	14
17	17057	6.786562327464	15
17	17102	6.788275157265	16
17	17338	6.821054935931	17
17	17481	6.831154935931	18
17	18241	7.145777331737	19
18	57	0.026165509089	64
18	105	0.043512566464	128
18	182	0.078243543414	192
18	348	0.133840384093	256
18	440	0.194809731553	320
18	515	0.225561323473	384
18	601	0.280238683419	448
18	649	0.324618999501	512
18	737	0.372100277607	576
18	818	0.428770946058	640
18	868	0.463927997991	704
18	952	0.518241224659	768
18	1040	0.565785285194	832
18	1121	0.604140355537	896
18	1190	0.644272019589	960
18	1331	0.699212423829	1024
18	1406	0.734739741809	1088
18	1505	0.791240816531	1152
18	1587	0.854758612797	1216
18	1684	0.919886351539	1280
18	1777	0.951453863097	1344
18	1867	0.986202971668	1408
18	1984	1.024875856994	1472
18	2071	1.075234615432	1536
18	2285	1.128272475238	1600
18	2430	1.196382435607	1664
18	2474	1.238279913673	1728
18	2570	1.284140143226	1792
18	2646	1.326668876511	1856
18	2736	1.383055613077	1920
18	2851	1.438815220937	1984
18	2989	1.497458202278	2048
18	3078	1.544608950221	2112
18	3168	1.578303905685	2176
18	3262	1.631276915917	2240
18	3322	1.670127423224	2304
18	3453	1.717562019997	2368
18	3507	1.765479066944	2432
18	3640	1.824048718879	2496
18	3675	1.855551094258	2560
18	3770	1.910173476956	2624
18	3860	1.956629345932	2688
18	3959	1.989396025541	2752
18	4003	2.021419550052	2816
18	4075	2.05208466883	2880
18	4176	2.096483791192	2944
18	4265	2.146065748874	3008
18	4349	2.176806620638	3072
18	4444	2.24178953912	3136
18	4534	2.273063096077	3200
18	4572	2.305077898426	3264
18	4661	2.345768399786	3328
18	4762	2.405802169663	3392
18	4851	2.444552144377	3456
18	4941	2.483648729544	3520
18	5072	2.533162237783	3584
18	5227	2.597346781105	3648
18	5321	2.64558736604	3712
18	5492	2.710850782201	3776
18	5587	2.772772655414	3840
18	5685	2.811392962524	3904
18	5763	2.862120990977	3968
18	5860	2.921338678198	4032
18	6005	2.978332572002	4096
18	6101	3.014126482503	4160
18	6151	3.047830328847	4224
18	6248	3.099918027705	4288
18	6329	3.132439559407	4352
18	6474	3.201812736762	4416
18	6607	3.270275543068	4480
18	6703	3.325493460489	4544
18	6791	3.369382800958	4608
18	6886	3.41927845566	4672
18	6977	3.465323749318	4736
18	7379	3.509067969297	4800
18	7475	3.544367474618	4864
18	7527	3.586550755829	4928
18	7821	3.643647228807	4992
18	7995	3.684460344949	5056
18	8133	3.729657423003	5120
18	8312	3.76792120723	5184
18	8448	3.798308734176	5248
18	8569	3.832338997173	5312
18	8621	3.833228794974	5378
18	8785	3.856047290953	5442
18	8866	3.860300569505	5506
18	9021	3.88752853185	5570
18	9055	3.893222481048	5634
18	9120	3.922315707857	5698
18	9178	3.964647154387	5762
18	9396	4.030628393092	5828
18	9469	4.032796009637	5892
18	9713	4.072396695641	5956
18	9899	4.092485528744	6020
18	9988	4.112396695641	6084
18	10230	4.13179529403	6148
18	10307	4.143831007283	6214
18	10352	4.153831007283	6280
18	10396	4.163831007283	6346
18	10431	4.166414665744	6410
18	10581	4.227744043279	6474
18	10634	4.277651162422	6538
18	10728	4.337180225657	6602
18	10821	4.376485305282	6666
18	10939	4.445244173428	6730
18	11040	4.513282277762	6794
18	11132	4.568527299576	6858
18	11264	4.630348689454	6922
18	11527	4.668409397956	6986
18	11579	4.674731218301	7308
18	11624	4.684731218301	7630
18	11677	4.694731218301	7952
18	11769	4.716482265219	8016
18	11802	4.756830357899	8080
18	11903	4.810026853912	8144
18	12036	4.868371207572	8208
18	12130	4.937056052542	8272
18	12220	4.980995092118	8336
18	12321	5.046709581954	8400
18	12416	5.088017567829	8464
18	12499	5.140340171758	8528
18	12756	5.166013081416	8850
18	12799	5.176013081416	9172
18	12834	5.184044611047	9236
18	12879	5.186013081416	9558
18	13008	5.232239006089	9622
18	13115	5.299020263573	9686
18	13198	5.338130643565	9750
18	13249	5.381262775968	9814
18	13352	5.446134205443	9878
18	13484	5.514865662028	9942
18	13555	5.55128436775	10006
18	13655	5.587693586638	10070
18	13796	5.652833291832	10134
18	13996	5.66601317399	10456
18	14039	5.67601317399	10778
18	14093	5.68601317399	11100
18	14183	5.703753547565	11164
18	14254	5.749882269081	11228
18	14368	5.817011017406	11292
18	14458	5.87310337559	11356
18	14552	5.917179095527	11420
18	14676	5.985456414349	11484
18	14759	6.020946468399	11548
18	14810	6.055639287722	11612
18	14949	6.12309801157	11676
18	15238	6.175879426573	11998
18	15273	6.180495389154	12062
18	15318	6.185879426573	12384
18	15363	6.195879426573	12706
18	15436	6.229320225206	12770
18	15526	6.275312710881	12834
18	15581	6.320568596936	12898
18	15670	6.353370284485	12962
18	15770	6.39601908396	13026
18	15860	6.455509253675	13090
18	15984	6.486694646142	13154
18	16010	6.517459562047	13218
18	16133	6.581170636516	13282
18	16233	6.613816614931	13346
18	16532	6.666013359149	13668
18	16575	6.676013359149	13990
18	16628	6.679707698009	14054
18	16678	6.686013359149	14376
18	16754	6.740078995923	14440
18	16974	6.773978731349	14504
18	17294	6.819553106131	14568
18	17377	6.826987230028	14632
18	17437	6.829553106131	14696
18	17685	6.895986822466	14760
18	17776	6.934965499941	14824
18	17888	6.988808099491	14888
18	17971	7.030350897827	14952
18	18090	7.084803994691	15016
18	18185	7.118333924284	15080
18	18487	7.175879611734	15402
18	18522	7.182512325338	15466
18	18567	7.185879611734	15788
18	18636	7.195879611734	16110
18	18721	7.247803672096	16174
18	18819	7.297144397311	16238
18	18891	7.34072963925	16302
18	19029	7.405671912421	16366
18	19123	7.45354699076	16430
18	19187	7.491137135511	16494
18	19296	7.552304312808	16558
18	19445	7.622201757829	16622
18	19581	7.6868732993	16686
18	19711	7.75191437327	16750
18	19792	7.784189463766	16814
18	19858	7.836849707994	16878
18	19956	7.897144273617	16942
18	20335	7.963190760598	17006
18	20474	8.001482599679	17070
18	20798	8.058081187646	17134
18	21083	8.119671972275	17198
18	21164	8.150158818822	17262
18	21436	8.184065873633	17326
18	21606	8.233098921283	17390
18	21710	8.286391710621	17454
18	21873	8.356312729996	17518
18	21962	8.413143196311	17582
18	22063	8.462001489093	17646
18	22229	8.503533511254	17710
18	22350	8.53920620228	17774
18	22445	8.579877728678	17838
18	22470	8.620503030836	17902
18	22616	8.651057632861	17966
18	22890	8.684726756799	18030
18	23139	8.750919824975	18094
18	23276	8.796836569678	18158
18	23366	8.836581510506	18222
18	23468	8.894615736208	18286
18	23551	8.927097168997	18350
18	23653	8.995779365686	18414
18	23737	9.032321717323	18478
18	23770	9.064964687855	18542
18	23857	9.112494925747	18606
18	24008	9.149042296001	18670
18	24392	9.217538098889	18734
18	24493	9.270540567283	18798
18	24582	9.304867188269	18862
18	24628	9.342126241177	18926
18	24721	9.380947373136	18990
18	24813	9.436736746718	19054
18	24918	9.502231269403	19118
18	25055	9.567939556155	19182
18	25081	9.609905702078	19246
18	25261	9.65544186697	19310
18	25655	9.721619457207	19374
18	25713	9.777507851547	19438
18	25814	9.813248994252	19502
18	25872	9.86739497105	19566
18	25998	9.924786937314	19630
18	26098	9.95516194463	19694
18	26213	10.016092309935	19758
18	26359	10.085506703697	19822
18	26442	10.120169048301	19886
18	26691	10.16569581165	19950
18	26948	10.227914309269	20014
18	27075	10.294263646789	20078
18	27214	10.362465513832	20142
18	27266	10.417979125659	20206
18	27365	10.455096312983	20270
18	27428	10.494211141409	20334
18	27476	10.525065488738	20398
18	27545	10.560097934973	20462
18	27596	10.592140057577	20526
18	27679	10.63790649233	20590
18	28100	10.701147737005	20654
18	28226	10.759622555053	20718
18	28315	10.821331289619	20782
18	28415	10.851901350015	20846
18	28468	10.904007185057	20910
18	28626	10.96553376943	20974
18	28716	11.015671740631	21038
18	28813	11.07343523574	21102
18	28913	11.115270914742	21166
18	29204	11.168374518397	21230
18	29423	11.220304769788	21294
18	29485	11.256200773807	21358
18	29574	11.305417630828	21422
18	29708	11.37035040788	21486
18	29798	11.421246012855	21550
18	29901	11.489875384006	21614
18	29985	11.532419008477	21678
18	30091	11.599390691792	21742
18	30180	11.637398287116	21806
18	30601	11.688531086912	21870
18	30721	11.741324455506	21934
18	30823	11.79182399055	21998